 Gaussian 16, Revision A.03,
 Gaussian 16:  AM64L-G16RevA.03 25-Dec-2016

 ----------------------------------------------------------------------
 #p opt freq b3lyp/gen pseudo=read EmpiricalDispersion=GD3BJ pop=(orbit
 als=20) optcyc=300 nosymm scrf=(pcm,solvent=acetonitrile)
 ----------------------------------------------------------------------

 -------------------
 Title Card Required
 -------------------
 Symbolic Z-matrix:
 Charge =  0 Multiplicity = 1

 SCF Done:  E(RB3LYP) =  -559.478627130     A.U. after   14 cycles
 SCF Done:  E(RB3LYP) =  -559.532520195     A.U. after   11 cycles
 SCF Done:  E(RB3LYP) =  -559.586752868     A.U. after   11 cycles
 SCF Done:  E(RB3LYP) =  -559.611328759     A.U. after   11 cycles
 SCF Done:  E(RB3LYP) =  -559.618236309     A.U. after   10 cycles
 SCF Done:  E(RB3LYP) =  -559.621383082     A.U. after   10 cycles
 SCF Done:  E(RB3LYP) =  -559.621924856     A.U. after   11 cycles
 SCF Done:  E(RB3LYP) =  -559.623467463     A.U. after   10 cycles
 SCF Done:  E(RB3LYP) =  -559.624129845     A.U. after   10 cycles
 SCF Done:  E(RB3LYP) =  -559.625312430     A.U. after   10 cycles
 SCF Done:  E(RB3LYP) =  -559.625564046     A.U. after   10 cycles
 SCF Done:  E(RB3LYP) =  -559.626875283     A.U. after   10 cycles
 SCF Done:  E(RB3LYP) =  -559.626693629     A.U. after   10 cycles
 SCF Done:  E(RB3LYP) =  -559.627125186     A.U. after   10 cycles
 SCF Done:  E(RB3LYP) =  -559.627316147     A.U. after   10 cycles
 SCF Done:  E(RB3LYP) =  -559.627326876     A.U. after    8 cycles
 SCF Done:  E(RB3LYP) =  -559.627327968     A.U. after    8 cycles
 SCF Done:  E(RB3LYP) =  -559.627328789     A.U. after    7 cycles
 SCF Done:  E(RB3LYP) =  -559.627328890     A.U. after    6 cycles
 Optimization completed.
    -- Stationary point found.
 Normal termination of Gaussian 16 at Wed Jul 10 14:21:44 2024.

 ------------------------------------------------------------------
 #P Geom=AllCheck Guess=TCheck SCRF=Check GenChk RB3LYP/ChkBas Freq
 ------------------------------------------------------------------

 Structure from the checkpoint file:  "a.chk"
 -------------------
 Title Card Required
 -------------------
 Charge =  0 Multiplicity = 1

                          Input orientation:
 ---------------------------------------------------------------------
 Center     Atomic      Atomic             Coordinates (Angstroms)
 Number     Number       Type             X           Y           Z
 ---------------------------------------------------------------------
      1          6           0       -6.725084    3.581687    3.006722
      2          1           0       -6.238361    4.252787    2.292321
      3          1           0       -6.213599    2.621518    2.953129
      4          6           0       -6.633189    4.167046    4.405378
      5          1           0       -5.597140    4.431258    4.615094
      6          1           0       -6.940688    3.419336    5.139351
      7          6           0       -7.534553    5.393612    4.509067
      8          1           0       -7.488012    5.839307    5.500603
      9          1           0       -7.189196    6.150994    3.798278
     10          6           0       -9.211219    4.018238    3.092689
     11          7           0       -8.118562    3.373451    2.620138
     12          1           0       -8.304262    2.740370    1.857661
     13          8           0      -10.335919    3.778413    2.648870
     14          6           0       -8.964625    5.016004    4.181310
     15          6           0       -9.994013    5.520202    4.812308
     16          6           0      -11.010179    6.042461    5.425378
     17          1           0      -11.391143    5.551925    6.318170
     18          6           0      -11.751535    7.299809    4.996384
     19          6           0      -13.223940    6.924377    4.762647
     20          1           0      -13.314596    6.194759    3.957557
     21          1           0      -13.666457    6.495376    5.662879
     22          1           0      -13.800233    7.810230    4.490699
     23          6           0      -11.658706    8.328546    6.134379
     24          1           0      -10.622381    8.616023    6.314495
     25          1           0      -12.224037    9.226179    5.878364
     26          1           0      -12.066512    7.924716    7.062227
     27          6           0      -11.156127    7.883992    3.714233
     28          1           0      -10.111296    8.161441    3.857012
     29          1           0      -11.205579    7.163537    2.897449
     30          1           0      -11.707858    8.776707    3.417970
 ---------------------------------------------------------------------

 SCF Done:  E(RB3LYP) =  -559.627328890     A.U. after    1 cycles

 Alpha  occ. eigenvalues --  -19.08961 -14.34420 -10.27883 -10.21410 -10.19831
 Alpha  occ. eigenvalues --  -10.19457 -10.19123 -10.18453 -10.18390 -10.17955
 Alpha  occ. eigenvalues --  -10.16187 -10.16153 -10.15868  -1.03597  -0.93038
 Alpha  occ. eigenvalues --   -0.84323  -0.81824  -0.77627  -0.73304  -0.68943
 Alpha  occ. eigenvalues --   -0.68875  -0.67546  -0.63370  -0.59437  -0.55742
 Alpha  occ. eigenvalues --   -0.51282  -0.50013  -0.48590  -0.47135  -0.46676
 Alpha  occ. eigenvalues --   -0.45178  -0.44206  -0.43192  -0.42538  -0.42193
 Alpha  occ. eigenvalues --   -0.41330  -0.39427  -0.38289  -0.37078  -0.36737
 Alpha  occ. eigenvalues --   -0.35465  -0.35210  -0.35019  -0.33920  -0.33278
 Alpha  occ. eigenvalues --   -0.26958  -0.26162  -0.25868  -0.25765
 Alpha virt. eigenvalues --   -0.03362   0.01061   0.02896   0.04091   0.05898
 Alpha virt. eigenvalues --    0.06687   0.06835   0.08095   0.08597   0.08913
 Alpha virt. eigenvalues --    0.09641   0.09867   0.10516   0.11063   0.11495

 Mulliken charges:
               1
     1  C   -0.064180
     2  H    0.095324
     3  H    0.108425
     4  C   -0.176198
     5  H    0.104676
     6  H    0.097201
     7  C   -0.135908
     8  H    0.102011
     9  H    0.099573
    10  C    0.178615
    11  N   -0.127154
    12  H    0.153882
    13  O   -0.428368
    14  C    0.014904
    15  C    0.003193
    16  C   -0.260146
    17  H    0.131805
    18  C    0.162495
    19  C   -0.297316
    20  H    0.095666
    21  H    0.094430
    22  H    0.095609
    23  C   -0.297632
    24  H    0.095522
    25  H    0.096088
    26  H    0.094642
    27  C   -0.334523
    28  H    0.101936
    29  H    0.099338
    30  H    0.096091
 Sum of Mulliken charges =  -0.00000

 Dipole moment (field-independent basis, Debye):
    X=              4.8344    Y=              0.9992    Z=              1.4679  Tot=              5.1502
 Quadrupole moment (field-independent basis, Debye-Ang):
   XX=           -162.2572   YY=            -66.2945   ZZ=            -67.0058
   XY=              4.8422   XZ=             -2.9263   YZ=             13.1292

  Exact polarizability: 228.575 -37.950 175.517 -27.194  28.747 169.668
 Approx polarizability: 241.006 -30.749 185.352 -27.494  25.173 187.367

                      1                      2                      3
                      A                      A                      A
 Frequencies --     34.5366                41.1506                73.9579
 Red. masses --      3.2108                 3.4273                 3.7301
 Frc consts  --      0.0023                 0.0034                 0.0120
 IR Inten    --      2.4913                 5.4334                 2.9609

                      4                      5                      6
                      A                      A                      A
 Frequencies --    105.4696               137.3705               154.8120
 Red. masses --      3.8391                 3.9343                 3.6470
 Frc consts  --      0.0252                 0.0437                 0.0515
 IR Inten    --      0.6857                 1.6923                 1.1277

                      7                      8                      9
                      A                      A                      A
 Frequencies --    228.7595               231.1517               266.9328
 Red. masses --      1.0187                 3.0309                 1.4662
 Frc consts  --      0.0314                 0.0954                 0.0616
 IR Inten    --      0.0207                 0.7533                 0.5318

                     10                     11                     12
                      A                      A                      A
 Frequencies --    277.2069               288.0293               322.0042
 Red. masses --      1.0468                 1.5106                 2.0505
 Frc consts  --      0.0474                 0.0738                 0.1253
 IR Inten    --      0.0795                 0.2375                 7.1017

                     13                     14                     15
                      A                      A                      A
 Frequencies --    352.6709               376.4478               409.2186
 Red. masses --      2.2406                 2.4620                 3.0158
 Frc consts  --      0.1642                 0.2056                 0.2975
 IR Inten    --      0.8853                 2.7281                 7.2987

                     16                     17                     18
                      A                      A                      A
 Frequencies --    432.3116               441.3145               457.5643
 Red. masses --      4.8997                 3.2569                 2.5064
 Frc consts  --      0.5395                 0.3737                 0.3092
 IR Inten    --      4.9179                12.7518                 0.4454

                     19                     20                     21
                      A                      A                      A
 Frequencies --    513.1313               563.2212               584.0626
 Red. masses --      3.1330                 2.9357                 1.9620
 Frc consts  --      0.4860                 0.5487                 0.3943
 IR Inten    --     10.8250                18.2787                68.7237

                     22                     23                     24
                      A                      A                      A
 Frequencies --    597.0960               662.2047               701.2552
 Red. masses --      2.7167                 2.3330                 5.1779
 Frc consts  --      0.5707                 0.6028                 1.5002
 IR Inten    --     40.2283                11.1476                 9.0352

                     25                     26                     27
                      A                      A                      A
 Frequencies --    756.9237               770.5965               857.6711
 Red. masses --      4.2496                 4.2550                 1.5304
 Frc consts  --      1.4345                 1.4887                 0.6633
 IR Inten    --     17.9525                14.0398                24.1296

                     28                     29                     30
                      A                      A                      A
 Frequencies --    879.0188               897.2207               905.4334
 Red. masses --      2.2890                 1.6235                 2.2289
 Frc consts  --      1.0421                 0.7700                 1.0766
 IR Inten    --      2.5770                19.6338                 3.0998

                     31                     32                     33
                      A                      A                      A
 Frequencies --    934.5170               942.5321               949.8546
 Red. masses --      1.7783                 1.9079                 1.8287
 Frc consts  --      0.9150                 0.9986                 0.9721
 IR Inten    --      0.4484                 7.8672                 8.9697

                     34                     35                     36
                      A                      A                      A
 Frequencies --    968.7025               994.9345              1047.2358
 Red. masses --      1.2012                 2.4614                 1.4046
 Frc consts  --      0.6641                 1.4356                 0.9076
 IR Inten    --      0.0108                40.1158                 1.5305

                     37                     38                     39
                      A                      A                      A
 Frequencies --   1053.0243              1087.8212              1110.7060
 Red. masses --      1.4323                 1.9121                 1.7875
 Frc consts  --      0.9358                 1.3331                 1.2993
 IR Inten    --      0.4670                 5.4802                50.7619

                     40                     41                     42
                      A                      A                      A
 Frequencies --   1153.1906              1186.9355              1207.0942
 Red. masses --      2.8166                 1.5516                 1.2954
 Frc consts  --      2.2069                 1.2879                 1.1120
 IR Inten    --     15.0271                24.2834                 1.8216

                     43                     44                     45
                      A                      A                      A
 Frequencies --   1222.0070              1228.9442              1243.1623
 Red. masses --      1.7757                 2.6766                 2.2458
 Frc consts  --      1.5623                 2.3818                 2.0449
 IR Inten    --     73.9062                11.5845                 9.0941

                     46                     47                     48
                      A                      A                      A
 Frequencies --   1279.0122              1297.7600              1336.4065
 Red. masses --      2.6296                 1.1739                 1.9412
 Frc consts  --      2.5345                 1.1648                 2.0427
 IR Inten    --     72.9867                32.8171               254.8157

                     49                     50                     51
                      A                      A                      A
 Frequencies --   1354.6451              1376.9588              1395.2597
 Red. masses --      1.5527                 1.4262                 1.2114
 Frc consts  --      1.6788                 1.5932                 1.3894
 IR Inten    --     89.1568                 9.2310                 8.8043

                     52                     53                     54
                      A                      A                      A
 Frequencies --   1399.7718              1400.7389              1423.3653
 Red. masses --      1.3669                 1.3837                 1.2963
 Frc consts  --      1.5780                 1.5995                 1.5474
 IR Inten    --      7.2076                16.6802                16.7399

                     55                     56                     57
                      A                      A                      A
 Frequencies --   1450.9130              1476.5723              1476.9178
 Red. masses --      2.6776                 1.3280                 1.0887
 Frc consts  --      3.3211                 1.7059                 1.3992
 IR Inten    --     40.6531                21.8629                 4.2241

                     58                     59                     60
                      A                      A                      A
 Frequencies --   1480.9704              1481.5508              1482.2558
 Red. masses --      1.0444                 1.0474                 1.1008
 Frc consts  --      1.3497                 1.3546                 1.4250
 IR Inten    --      0.5819                 2.6312                21.5453

                     61                     62                     63
                      A                      A                      A
 Frequencies --   1492.5903              1495.0159              1497.0101
 Red. masses --      1.3830                 1.0583                 1.0704
 Frc consts  --      1.8153                 1.3936                 1.4133
 IR Inten    --     83.7124                 9.8282                16.9654

                     64                     65                     66
                      A                      A                      A
 Frequencies --   1509.8304              1521.7375              1676.1377
 Red. masses --      1.0786                 1.1817                 6.3759
 Frc consts  --      1.4486                 1.6123                10.5539
 IR Inten    --     19.6380                54.3290               539.5106

                     67                     68                     69
                      A                      A                      A
 Frequencies --   2041.6144              3003.2390              3008.3629
 Red. masses --     11.2439                 1.0713                 1.0705
 Frc consts  --     27.6130                 5.6928                 5.7083
 IR Inten    --    159.5615                79.8004                27.9205

                     70                     71                     72
                      A                      A                      A
 Frequencies --   3020.5681              3023.7037              3032.4503
 Red. masses --      1.0335                 1.0338                 1.0348
 Frc consts  --      5.5555                 5.5688                 5.6065
 IR Inten    --     45.7862                65.6926                27.6847

                     73                     74                     75
                      A                      A                      A
 Frequencies --   3037.5638              3077.3662              3083.7077
 Red. masses --      1.0628                 1.0920                 1.1025
 Frc consts  --      5.7774                 6.0933                 6.1768
 IR Inten    --     43.6506                60.9655                 0.3639

                     76                     77                     78
                      A                      A                      A
 Frequencies --   3087.0128              3087.7227              3090.1388
 Red. masses --      1.1019                 1.1013                 1.1026
 Frc consts  --      6.1871                 6.1862                 6.2033
 IR Inten    --     68.6561                55.5098                24.2663

                     79                     80                     81
                      A                      A                      A
 Frequencies --   3092.3961              3092.4724              3093.9906
 Red. masses --      1.0931                 1.1023                 1.1016
 Frc consts  --      6.1587                 6.2107                 6.2131
 IR Inten    --     29.1876                28.7506                94.5098

                     82                     83                     84
                      A                      A                      A
 Frequencies --   3098.0125              3104.3967              3598.5626
 Red. masses --      1.1015                 1.0868                 1.0764
 Frc consts  --      6.2287                 6.1712                 8.2126
 IR Inten    --     73.6035                17.9659                63.3330

 - Thermochemistry -
 -------------------
 Temperature   298.150 Kelvin.  Pressure   1.00000 Atm.
 Atom     1 has atomic number  6 and mass  12.00000

 Molecular mass:   179.13101 amu.
 Principal axes and moments of inertia in atomic units:
                           1         2         3
     Eigenvalues --  1070.912654510.211675084.55038
           X            0.73997   0.63196  -0.23038
           Y           -0.60508   0.47579  -0.63836
           Z           -0.29381   0.61177   0.73445
 This molecule is an asymmetric top.
 Rotational symmetry number  1.
 Warning -- assumption of classical behavior for rotation
           may cause significant error
 Rotational temperatures (Kelvin)      0.08088     0.01920     0.01703
 Rotational constants (GHZ):           1.68524     0.40015     0.35495
 Zero-point vibrational energy     685628.3 (Joules/Mol)
                                  163.86911 (Kcal/Mol)
 Warning -- explicit consideration of  22 degrees of freedom as
           vibrations may cause significant error
 Vibrational temperatures:     49.69    59.21   106.41   151.75   197.65
          (Kelvin)            222.74   329.13   332.58   384.06   398.84
                              414.41   463.29   507.41   541.62   588.77
                              622.00   634.95   658.33   738.28   810.35
                              840.34   859.09   952.76  1008.95  1089.04
                             1108.72  1234.00  1264.71  1290.90  1302.72
                             1344.56  1356.09  1366.63  1393.75  1431.49
                             1506.74  1515.07  1565.13  1598.06  1659.18
                             1707.74  1736.74  1758.20  1768.18  1788.63
                             1840.21  1867.19  1922.79  1949.03  1981.14
                             2007.47  2013.96  2015.35  2047.91  2087.54
                             2124.46  2124.96  2130.79  2131.62  2132.64
                             2147.50  2150.99  2153.86  2172.31  2189.44
                             2411.59  2937.43  4320.99  4328.36  4345.92
                             4350.44  4363.02  4370.38  4427.64  4436.77
                             4441.52  4442.54  4446.02  4449.27  4449.38
                             4451.56  4457.35  4466.53  5177.53

 Zero-point correction=                           0.261142 (Hartree/Particle)
 Thermal correction to Energy=                    0.275019
 Thermal correction to Enthalpy=                  0.275963
 Thermal correction to Gibbs Free Energy=         0.220304
 Sum of electronic and zero-point Energies=           -559.366187
 Sum of electronic and thermal Energies=              -559.352310
 Sum of electronic and thermal Enthalpies=            -559.351365
 Sum of electronic and thermal Free Energies=         -559.407025

                     E (Thermal)             CV                S
                      KCal/Mol        Cal/Mol-Kelvin    Cal/Mol-Kelvin
 Total                  172.577             52.915            117.146
 Electronic               0.000              0.000              0.000
 Translational            0.889              2.981             41.456
 Rotational               0.889              2.981             31.574
 Vibrational            170.800             46.953             44.116
 Vibration     1          0.594              1.983              5.550
 Vibration     2          0.594              1.981              5.203
 Vibration     3          0.599              1.966              4.045
 Vibration     4          0.605              1.945              3.351
 Vibration     5          0.614              1.916              2.840
 Vibration     6          0.620              1.897              2.612
 Vibration     7          0.651              1.797              1.889
 Vibration     8          0.653              1.793              1.870
 Vibration     9          0.672              1.734              1.616
 Vibration    10          0.678              1.716              1.551
 Vibration    11          0.685              1.696              1.486
 Vibration    12          0.707              1.631              1.300
 Vibration    13          0.729              1.570              1.154
 Vibration    14          0.747              1.520              1.053
 Vibration    15          0.774              1.450              0.929
 Vibration    16          0.793              1.400              0.851
 Vibration    17          0.801              1.380              0.822
 Vibration    18          0.816              1.344              0.773
 Vibration    19          0.868              1.221              0.626
 Vibration    20          0.919              1.111              0.517
 Vibration    21          0.941              1.066              0.478
 Vibration    22          0.955              1.038              0.455

 Optimization completed.
    -- Stationary point found.
 Normal termination of Gaussian 16 at Wed Jul 10 16:41:38 2024.
