 Gaussian 16, Revision A.03,
 Gaussian 16:  AM64L-G16RevA.03 25-Dec-2016

 ----------------------------------------------------------------------
 #p opt freq b3lyp/gen pseudo=read EmpiricalDispersion=GD3BJ pop=(orbit
 als=20) optcyc=300 nosymm scrf=(pcm,solvent=acetonitrile)
 ----------------------------------------------------------------------

 -------------------
 Title Card Required
 -------------------
 Symbolic Z-matrix:
 Charge =  0 Multiplicity = 1

 SCF Done:  E(RB3LYP) =  -559.478651060     A.U. after   14 cycles
 SCF Done:  E(RB3LYP) =  -559.532285409     A.U. after   11 cycles
 SCF Done:  E(RB3LYP) =  -559.586562861     A.U. after   11 cycles
 SCF Done:  E(RB3LYP) =  -559.611075593     A.U. after   10 cycles
 SCF Done:  E(RB3LYP) =  -559.618044561     A.U. after   10 cycles
 SCF Done:  E(RB3LYP) =  -559.621589707     A.U. after   10 cycles
 SCF Done:  E(RB3LYP) =  -559.622430529     A.U. after   12 cycles
 SCF Done:  E(RB3LYP) =  -559.624230279     A.U. after   10 cycles
 SCF Done:  E(RB3LYP) =  -559.624751544     A.U. after   10 cycles
 SCF Done:  E(RB3LYP) =  -559.626007820     A.U. after   10 cycles
 SCF Done:  E(RB3LYP) =  -559.626705285     A.U. after   10 cycles
 SCF Done:  E(RB3LYP) =  -559.626912721     A.U. after   10 cycles
 SCF Done:  E(RB3LYP) =  -559.627080482     A.U. after    9 cycles
 SCF Done:  E(RB3LYP) =  -559.627262999     A.U. after    9 cycles
 SCF Done:  E(RB3LYP) =  -559.627263100     A.U. after    9 cycles
 SCF Done:  E(RB3LYP) =  -559.627288903     A.U. after    8 cycles
 SCF Done:  E(RB3LYP) =  -559.627288649     A.U. after    8 cycles
 SCF Done:  E(RB3LYP) =  -559.627290739     A.U. after    7 cycles
 SCF Done:  E(RB3LYP) =  -559.627290818     A.U. after    6 cycles
 Optimization completed.
    -- Stationary point found.
 Normal termination of Gaussian 16 at Wed Jul 10 15:47:04 2024.

 ------------------------------------------------------------------
 #P Geom=AllCheck Guess=TCheck SCRF=Check GenChk RB3LYP/ChkBas Freq
 ------------------------------------------------------------------

 Structure from the checkpoint file:  "a-ent.chk"
 -------------------
 Title Card Required
 -------------------
 Charge =  0 Multiplicity = 1

                          Input orientation:
 ---------------------------------------------------------------------
 Center     Atomic      Atomic             Coordinates (Angstroms)
 Number     Number       Type             X           Y           Z
 ---------------------------------------------------------------------
      1          6           0       -7.030807    3.376130    2.681680
      2          1           0       -6.608443    4.012313    1.897722
      3          1           0       -6.629228    2.373733    2.540244
      4          6           0       -6.652818    3.923775    4.047084
      5          1           0       -5.574919    4.078094    4.085928
      6          1           0       -6.913264    3.197886    4.820170
      7          6           0       -7.393685    5.233626    4.296531
      8          1           0       -7.145876    5.651386    5.270294
      9          1           0       -7.085259    5.965558    3.543494
     10          6           0       -9.413124    4.044740    3.184386
     11          7           0       -8.482600    3.304621    2.536685
     12          1           0       -8.855659    2.683364    1.835723
     13          8           0      -10.615484    3.902445    2.953647
     14          6           0       -8.890067    5.013406    4.199386
     15          6           0       -9.744345    5.621982    4.981914
     16          6           0      -10.577278    6.205309    5.786207
     17          1           0      -10.992296    7.168522    5.497934
     18          6           0      -11.056339    5.654449    7.120928
     19          6           0      -10.707672    6.674570    8.216274
     20          1           0       -9.628140    6.806984    8.294752
     21          1           0      -11.155594    7.646340    8.003465
     22          1           0      -11.082315    6.333205    9.182671
     23          6           0      -12.582526    5.485084    7.044225
     24          1           0      -12.853580    4.762732    6.273853
     25          1           0      -12.971145    5.130848    8.000457
     26          1           0      -13.070641    6.432243    6.810078
     27          6           0      -10.400274    4.308796    7.434371
     28          1           0      -10.633562    3.570631    6.666789
     29          1           0       -9.315582    4.404587    7.491879
     30          1           0      -10.760181    3.931171    8.391968
 ---------------------------------------------------------------------

 SCF Done:  E(RB3LYP) =  -559.627290818     A.U. after    1 cycles

 Alpha  occ. eigenvalues --  -19.08916 -14.34395 -10.27870 -10.21395 -10.19847
 Alpha  occ. eigenvalues --  -10.19462 -10.19128 -10.18455 -10.18378 -10.17940
 Alpha  occ. eigenvalues --  -10.16190 -10.16159 -10.15896  -1.03573  -0.93023
 Alpha  occ. eigenvalues --   -0.84329  -0.81813  -0.77624  -0.73296  -0.68962
 Alpha  occ. eigenvalues --   -0.68880  -0.67540  -0.63366  -0.59417  -0.55788
 Alpha  occ. eigenvalues --   -0.51221  -0.50096  -0.48455  -0.47211  -0.46671
 Alpha  occ. eigenvalues --   -0.45135  -0.44240  -0.43096  -0.42692  -0.42068
 Alpha  occ. eigenvalues --   -0.41322  -0.39441  -0.38313  -0.37079  -0.36776
 Alpha  occ. eigenvalues --   -0.35538  -0.35167  -0.34971  -0.33930  -0.33296
 Alpha  occ. eigenvalues --   -0.26896  -0.26175  -0.25886  -0.25735
 Alpha virt. eigenvalues --   -0.03395   0.01077   0.02877   0.03903   0.05799
 Alpha virt. eigenvalues --    0.06317   0.07316   0.07978   0.08417   0.08876
 Alpha virt. eigenvalues --    0.09481   0.09994   0.10618   0.11265   0.12096

 Mulliken charges:
               1
     1  C   -0.064806
     2  H    0.095451
     3  H    0.108521
     4  C   -0.176710
     5  H    0.104590
     6  H    0.099375
     7  C   -0.137645
     8  H    0.103267
     9  H    0.099776
    10  C    0.174300
    11  N   -0.125816
    12  H    0.153921
    13  O   -0.426794
    14  C    0.007429
    15  C    0.008279
    16  C   -0.259322
    17  H    0.131157
    18  C    0.162471
    19  C   -0.298270
    20  H    0.095880
    21  H    0.094800
    22  H    0.096050
    23  C   -0.296841
    24  H    0.096013
    25  H    0.095495
    26  H    0.094607
    27  C   -0.337288
    28  H    0.102322
    29  H    0.103380
    30  H    0.096410
 Sum of Mulliken charges =  -0.00000

 Dipole moment (field-independent basis, Debye):
    X=              5.1406    Y=              0.0167    Z=              1.0998  Tot=              5.2570
 Quadrupole moment (field-independent basis, Debye-Ang):
   XX=           -172.6355   YY=            -75.7804   ZZ=            -64.6827
   XY=             17.1500   XZ=              1.3705   YZ=              9.4905

  Exact polarizability: 208.846 -26.003 168.906 -38.811  35.745 194.820
 Approx polarizability: 223.670 -25.568 185.758 -34.703  32.385 203.849

                      1                      2                      3
                      A                      A                      A
 Frequencies --     33.6288                39.1377                61.4263
 Red. masses --      3.0416                 3.6904                 4.2576
 Frc consts  --      0.0020                 0.0033                 0.0095
 IR Inten    --      1.7530                 5.4989                 2.9491

                      4                      5                      6
                      A                      A                      A
 Frequencies --     97.1416               143.7383               147.9382
 Red. masses --      3.4037                 3.6606                 3.6617
 Frc consts  --      0.0189                 0.0446                 0.0472
 IR Inten    --      0.4815                 1.8292                 1.0173

                      7                      8                      9
                      A                      A                      A
 Frequencies --    230.4097               246.0065               280.1891
 Red. masses --      1.0155                 2.2068                 1.5275
 Frc consts  --      0.0318                 0.0787                 0.0707
 IR Inten    --      0.0267                 0.3101                 0.9911

                     10                     11                     12
                      A                      A                      A
 Frequencies --    281.5529               284.2627               329.1495
 Red. masses --      1.0495                 1.6611                 2.2886
 Frc consts  --      0.0490                 0.0791                 0.1461
 IR Inten    --      0.0641                 0.4695                 9.4744

                     13                     14                     15
                      A                      A                      A
 Frequencies --    348.4910               359.6363               414.3672
 Red. masses --      2.3213                 2.6626                 3.3797
 Frc consts  --      0.1661                 0.2029                 0.3419
 IR Inten    --      0.4672                 3.3222                 8.3159

                     16                     17                     18
                      A                      A                      A
 Frequencies --    425.3599               433.4627               476.5667
 Red. masses --      3.1018                 3.2397                 2.7065
 Frc consts  --      0.3307                 0.3586                 0.3622
 IR Inten    --      6.3010                 6.7854                 1.3735

                     19                     20                     21
                      A                      A                      A
 Frequencies --    485.3574               560.6372               588.1668
 Red. masses --      3.3542                 1.8919                 2.1879
 Frc consts  --      0.4655                 0.3504                 0.4459
 IR Inten    --     10.2253                32.0846                78.9618

                     22                     23                     24
                      A                      A                      A
 Frequencies --    600.1396               668.2907               699.7059
 Red. masses --      3.6084                 2.4728                 5.3354
 Frc consts  --      0.7657                 0.6507                 1.5390
 IR Inten    --     12.1253                15.5278                 5.5414

                     25                     26                     27
                      A                      A                      A
 Frequencies --    757.6402               770.8580               857.3660
 Red. masses --      4.1851                 4.4962                 1.5099
 Frc consts  --      1.4154                 1.5742                 0.6539
 IR Inten    --     15.6494                14.6851                28.1758

                     28                     29                     30
                      A                      A                      A
 Frequencies --    876.8019               897.2224               906.0191
 Red. masses --      2.1535                 1.7083                 2.1909
 Frc consts  --      0.9754                 0.8103                 1.0596
 IR Inten    --      0.1666                20.0747                 5.1324

                     31                     32                     33
                      A                      A                      A
 Frequencies --    934.2515               943.3660               950.2224
 Red. masses --      1.7798                 1.8483                 1.8760
 Frc consts  --      0.9153                 0.9691                 0.9980
 IR Inten    --      0.3859                 6.1822                14.6688

                     34                     35                     36
                      A                      A                      A
 Frequencies --    968.2612               995.9668              1047.4059
 Red. masses --      1.2018                 2.4713                 1.4040
 Frc consts  --      0.6639                 1.4443                 0.9075
 IR Inten    --      0.0020                39.0417                 1.6046

                     37                     38                     39
                      A                      A                      A
 Frequencies --   1052.8163              1087.3223              1111.0000
 Red. masses --      1.4333                 1.8916                 1.7774
 Frc consts  --      0.9360                 1.3177                 1.2926
 IR Inten    --      0.3302                 1.8964                52.5805

                     40                     41                     42
                      A                      A                      A
 Frequencies --   1153.5953              1187.1152              1207.4443
 Red. masses --      2.9193                 1.5372                 1.2936
 Frc consts  --      2.2890                 1.2763                 1.1112
 IR Inten    --     14.7970                24.7661                 2.0704

                     43                     44                     45
                      A                      A                      A
 Frequencies --   1221.5388              1229.4445              1243.4004
 Red. masses --      1.8469                 2.5796                 2.2343
 Frc consts  --      1.6237                 2.2973                 2.0352
 IR Inten    --     71.2667                15.0657                10.4029

                     46                     47                     48
                      A                      A                      A
 Frequencies --   1279.6559              1298.0719              1336.7772
 Red. masses --      2.6270                 1.1767                 1.9171
 Frc consts  --      2.5346                 1.1682                 2.0184
 IR Inten    --     69.8201                32.1643               243.1479

                     49                     50                     51
                      A                      A                      A
 Frequencies --   1356.2989              1377.2849              1395.6437
 Red. masses --      1.5546                 1.4269                 1.2111
 Frc consts  --      1.6849                 1.5948                 1.3899
 IR Inten    --     92.1982                 8.3010                 8.7843

                     52                     53                     54
                      A                      A                      A
 Frequencies --   1398.9194              1400.0985              1422.8355
 Red. masses --      1.3194                 1.4388                 1.3007
 Frc consts  --      1.5213                 1.6617                 1.5515
 IR Inten    --      3.4309                19.8357                18.1246

                     55                     56                     57
                      A                      A                      A
 Frequencies --   1449.8668              1476.0627              1476.9747
 Red. masses --      2.6731                 1.4229                 1.0488
 Frc consts  --      3.3107                 1.8266                 1.3480
 IR Inten    --     40.5451                32.0001                 0.2589

                     58                     59                     60
                      A                      A                      A
 Frequencies --   1481.3809              1481.9747              1482.2978
 Red. masses --      1.0448                 1.0530                 1.0919
 Frc consts  --      1.3509                 1.3625                 1.4135
 IR Inten    --      0.2663                 3.9297                17.8293

                     61                     62                     63
                      A                      A                      A
 Frequencies --   1492.3603              1495.2100              1497.0950
 Red. masses --      1.3681                 1.0520                 1.0703
 Frc consts  --      1.7952                 1.3858                 1.4134
 IR Inten    --     80.4459                11.7071                15.1317

                     64                     65                     66
                      A                      A                      A
 Frequencies --   1510.3098              1521.7742              1676.4051
 Red. masses --      1.0775                 1.1756                 6.4500
 Frc consts  --      1.4481                 1.6040                10.6799
 IR Inten    --     17.9274                53.6259               547.1331

                     67                     68                     69
                      A                      A                      A
 Frequencies --   2041.3721              3003.4022              3008.9451
 Red. masses --     11.2553                 1.0714                 1.0704
 Frc consts  --     27.6344                 5.6941                 5.7097
 IR Inten    --    159.1551                88.3228                27.0405

                     70                     71                     72
                      A                      A                      A
 Frequencies --   3020.6701              3023.5535              3031.7852
 Red. masses --      1.0334                 1.0338                 1.0348
 Frc consts  --      5.5557                 5.5680                 5.6043
 IR Inten    --     46.2585                67.1979                23.3804

                     73                     74                     75
                      A                      A                      A
 Frequencies --   3037.5551              3078.8976              3083.9151
 Red. masses --      1.0627                 1.0920                 1.1025
 Frc consts  --      5.7771                 6.0990                 6.1776
 IR Inten    --     44.4042                60.0818                 0.3452

                     76                     77                     78
                      A                      A                      A
 Frequencies --   3087.1255              3087.9246              3090.1562
 Red. masses --      1.1019                 1.1010                 1.1027
 Frc consts  --      6.1874                 6.1854                 6.2038
 IR Inten    --     67.4605                58.8958                19.1782

                     79                     80                     81
                      A                      A                      A
 Frequencies --   3091.2949              3092.0700              3093.9426
 Red. masses --      1.0934                 1.1023                 1.1017
 Frc consts  --      6.1564                 6.2094                 6.2133
 IR Inten    --     29.7141                24.9830                89.6297

                     82                     83                     84
                      A                      A                      A
 Frequencies --   3096.1127              3103.7837              3599.2685
 Red. masses --      1.1017                 1.0867                 1.0764
 Frc consts  --      6.2222                 6.1679                 8.2162
 IR Inten    --     86.5719                15.7739                65.1648

 - Thermochemistry -
 -------------------
 Temperature   298.150 Kelvin.  Pressure   1.00000 Atm.
 Atom     1 has atomic number  6 and mass  12.00000

 Molecular mass:   179.13101 amu.
 Principal axes and moments of inertia in atomic units:
                           1         2         3
     Eigenvalues --  1141.721384353.216074892.27743
           X           -0.58714   0.80900  -0.02796
           Y            0.34383   0.28051   0.89615
           Z            0.73284   0.51655  -0.44286
 This molecule is an asymmetric top.
 Rotational symmetry number  1.
 Warning -- assumption of classical behavior for rotation
           may cause significant error
 Rotational temperatures (Kelvin)      0.07586     0.01990     0.01770
 Rotational constants (GHZ):           1.58072     0.41458     0.36890
 Zero-point vibrational energy     685537.3 (Joules/Mol)
                                  163.84736 (Kcal/Mol)
 Warning -- explicit consideration of  22 degrees of freedom as
           vibrations may cause significant error
 Vibrational temperatures:     48.38    56.31    88.38   139.77   206.81
          (Kelvin)            212.85   331.51   353.95   403.13   405.09
                              408.99   473.57   501.40   517.44   596.18
                              612.00   623.66   685.67   698.32   806.63
                              846.24   863.47   961.52  1006.72  1090.08
                             1109.09  1233.56  1261.52  1290.90  1303.56
                             1344.18  1357.29  1367.16  1393.11  1432.97
                             1506.98  1514.77  1564.41  1598.48  1659.77
                             1707.99  1737.24  1757.52  1768.90  1788.98
                             1841.14  1867.64  1923.32  1951.41  1981.61
                             2008.02  2012.73  2014.43  2047.14  2086.03
                             2123.73  2125.04  2131.38  2132.23  2132.70
                             2147.17  2151.27  2153.99  2173.00  2189.49
                             2411.97  2937.08  4321.23  4329.20  4346.07
                             4350.22  4362.06  4370.36  4429.85  4437.07
                             4441.68  4442.83  4446.05  4447.68  4448.80
                             4451.49  4454.62  4465.65  5178.54

 Zero-point correction=                           0.261107 (Hartree/Particle)
 Thermal correction to Energy=                    0.275013
 Thermal correction to Enthalpy=                  0.275957
 Thermal correction to Gibbs Free Energy=         0.220041
 Sum of electronic and zero-point Energies=           -559.366183
 Sum of electronic and thermal Energies=              -559.352278
 Sum of electronic and thermal Enthalpies=            -559.351333
 Sum of electronic and thermal Free Energies=         -559.407250

                     E (Thermal)             CV                S
                      KCal/Mol        Cal/Mol-Kelvin    Cal/Mol-Kelvin
 Total                  172.573             52.928            117.687
 Electronic               0.000              0.000              0.000
 Translational            0.889              2.981             41.456
 Rotational               0.889              2.981             31.564
 Vibrational            170.796             46.967             44.667
 Vibration     1          0.594              1.983              5.603
 Vibration     2          0.594              1.981              5.302
 Vibration     3          0.597              1.973              4.411
 Vibration     4          0.603              1.951              3.511
 Vibration     5          0.616              1.909              2.754
 Vibration     6          0.617              1.905              2.699
 Vibration     7          0.652              1.795              1.876
 Vibration     8          0.660              1.769              1.759
 Vibration     9          0.680              1.710              1.533
 Vibration    10          0.681              1.708              1.524
 Vibration    11          0.683              1.703              1.508
 Vibration    12          0.712              1.617              1.264
 Vibration    13          0.726              1.578              1.173
 Vibration    14          0.734              1.555              1.124
 Vibration    15          0.778              1.439              0.911
 Vibration    16          0.787              1.415              0.874
 Vibration    17          0.794              1.397              0.847
 Vibration    18          0.833              1.302              0.719
 Vibration    19          0.841              1.283              0.696
 Vibration    20          0.916              1.116              0.523
 Vibration    21          0.945              1.057              0.470
 Vibration    22          0.958              1.031              0.449

 Optimization completed.
    -- Stationary point found.
 Normal termination of Gaussian 16 at Wed Jul 10 18:07:30 2024.
