 Gaussian 16, Revision A.03,
 Gaussian 16:  AM64L-G16RevA.03 25-Dec-2016

 ----------------------------------------------------------------------
 #p opt freq b3lyp/gen pseudo=read EmpiricalDispersion=GD3BJ pop=(orbit
 als=20) optcyc=300 nosymm scrf=(pcm,solvent=acetonitrile)
 ----------------------------------------------------------------------

 -------------------
 Title Card Required
 -------------------
 Symbolic Z-matrix:
 Charge =  0 Multiplicity = 1

 SCF Done:  E(RB3LYP) =  -751.281188905     A.U. after   13 cycles
 SCF Done:  E(RB3LYP) =  -751.336640597     A.U. after   11 cycles
 SCF Done:  E(RB3LYP) =  -751.400924032     A.U. after   11 cycles
 SCF Done:  E(RB3LYP) =  -751.426186674     A.U. after   10 cycles
 SCF Done:  E(RB3LYP) =  -751.434486683     A.U. after   10 cycles
 SCF Done:  E(RB3LYP) =  -751.436852963     A.U. after   10 cycles
 SCF Done:  E(RB3LYP) =  -751.438908758     A.U. after   11 cycles
 SCF Done:  E(RB3LYP) =  -751.440870952     A.U. after   10 cycles
 SCF Done:  E(RB3LYP) =  -751.441773766     A.U. after   10 cycles
 SCF Done:  E(RB3LYP) =  -751.443369259     A.U. after   10 cycles
 SCF Done:  E(RB3LYP) =  -751.444147495     A.U. after   10 cycles
 SCF Done:  E(RB3LYP) =  -751.444522764     A.U. after   10 cycles
 SCF Done:  E(RB3LYP) =  -751.444475280     A.U. after   10 cycles
 SCF Done:  E(RB3LYP) =  -751.444698254     A.U. after    9 cycles
 SCF Done:  E(RB3LYP) =  -751.444706426     A.U. after    8 cycles
 SCF Done:  E(RB3LYP) =  -751.444718537     A.U. after    8 cycles
 SCF Done:  E(RB3LYP) =  -751.444719266     A.U. after    6 cycles
 SCF Done:  E(RB3LYP) =  -751.444719741     A.U. after    7 cycles
 SCF Done:  E(RB3LYP) =  -751.444719765     A.U. after    6 cycles
 Optimization completed.
    -- Stationary point found.
 Normal termination of Gaussian 16 at Wed Jul 10 19:28:27 2024.

 ------------------------------------------------------------------
 #P Geom=AllCheck Guess=TCheck SCRF=Check GenChk RB3LYP/ChkBas Freq
 ------------------------------------------------------------------

 Structure from the checkpoint file:  "e.chk"
 -------------------
 Title Card Required
 -------------------
 Charge =  0 Multiplicity = 1

                          Input orientation:
 ---------------------------------------------------------------------
 Center     Atomic      Atomic             Coordinates (Angstroms)
 Number     Number       Type             X           Y           Z
 ---------------------------------------------------------------------
      1          6           0       -6.622907    4.075900    3.237945
      2          1           0       -6.103470    4.907314    2.751465
      3          1           0       -6.011441    3.184873    3.102272
      4          6           0       -6.814222    4.382219    4.713253
      5          1           0       -5.856935    4.670446    5.146512
      6          1           0       -7.158728    3.486392    5.233980
      7          6           0       -7.837695    5.501555    4.876558
      8          1           0       -7.997621    5.744876    5.925022
      9          1           0       -7.457408    6.405328    4.390292
     10          6           0       -9.122982    4.307039    2.966933
     11          7           0       -7.909302    3.844030    2.585685
     12          1           0       -7.908987    3.345367    1.709407
     13          8           0      -10.135110    4.066191    2.306871
     14          6           0       -9.152445    5.104370    4.234708
     15          6           0      -10.313344    5.421733    4.748699
     16          6           0      -11.457220    5.757454    5.261704
     17          1           0      -11.926632    5.084646    5.975463
     18          6           0      -12.328886    7.935541    6.189356
     19          1           0      -11.336018    8.194831    6.563620
     20          1           0      -12.830632    7.385136    6.989142
     21          6           0      -12.188974    7.039519    4.956009
     22          1           0      -13.185863    6.793795    4.578351
     23          1           0      -11.669282    7.577995    4.162672
     24          6           0      -13.111780    9.220633    5.890891
     25          1           0      -14.104890    8.954856    5.522504
     26          1           0      -12.608867    9.764089    5.088062
     27          6           0      -13.238523   10.106370    7.101462
     28          6           0      -12.255617   11.050641    7.401106
     29          6           0      -14.317283    9.972272    7.976263
     30          6           0      -12.346287   11.839508    8.542030
     31          1           0      -11.413363   11.170064    6.731073
     32          6           0      -14.413346   10.758654    9.118708
     33          1           0      -15.090558    9.246629    7.757108
     34          6           0      -13.426647   11.695656    9.406109
     35          1           0      -11.575909   12.568669    8.754559
     36          1           0      -15.259799   10.642342    9.782268
     37          1           0      -13.500778   12.310490   10.292667
 ---------------------------------------------------------------------

 SCF Done:  E(RB3LYP) =  -751.444719765     A.U. after    1 cycles

 Alpha  occ. eigenvalues --  -19.08940 -14.34423 -10.27913 -10.21416 -10.19589
 Alpha  occ. eigenvalues --  -10.19308 -10.18865 -10.18547 -10.18434 -10.18166
 Alpha  occ. eigenvalues --  -10.17963 -10.17798 -10.17790 -10.17604 -10.17537
 Alpha  occ. eigenvalues --  -10.17534 -10.17434 -10.17411  -1.03623  -0.93058
 Alpha  occ. eigenvalues --   -0.86383  -0.83351  -0.81173  -0.78659  -0.76468
 Alpha  occ. eigenvalues --   -0.74898  -0.73205  -0.68923  -0.66072  -0.63342
 Alpha  occ. eigenvalues --   -0.60931  -0.60717  -0.58338  -0.57981  -0.51897
 Alpha  occ. eigenvalues --   -0.51406  -0.50679  -0.48856  -0.47785  -0.46888
 Alpha  occ. eigenvalues --   -0.46122  -0.45365  -0.44312  -0.43536  -0.43039
 Alpha  occ. eigenvalues --   -0.42342  -0.42210  -0.42069  -0.41227  -0.39085
 Alpha  occ. eigenvalues --   -0.38127  -0.36994  -0.36818  -0.35461  -0.35218
 Alpha  occ. eigenvalues --   -0.35133  -0.34641  -0.33773  -0.33335  -0.27095
 Alpha  occ. eigenvalues --   -0.26414  -0.25989  -0.25946  -0.25844  -0.24827
 Alpha virt. eigenvalues --   -0.03391  -0.01460  -0.01377   0.01103   0.03144
 Alpha virt. eigenvalues --    0.04170   0.05386   0.05920   0.06146   0.06398
 Alpha virt. eigenvalues --    0.07420   0.07955   0.08110   0.09401   0.09979

 Mulliken charges:
               1
     1  C   -0.063529
     2  H    0.095350
     3  H    0.108627
     4  C   -0.174686
     5  H    0.104661
     6  H    0.097553
     7  C   -0.136787
     8  H    0.102832
     9  H    0.100349
    10  C    0.169691
    11  N   -0.125658
    12  H    0.154262
    13  O   -0.424694
    14  C    0.049746
    15  C   -0.018351
    16  C   -0.266886
    17  H    0.142407
    18  C   -0.141998
    19  H    0.097768
    20  H    0.094851
    21  C   -0.136166
    22  H    0.101273
    23  H    0.093901
    24  C   -0.191532
    25  H    0.094043
    26  H    0.095978
    27  C    0.074733
    28  C   -0.157223
    29  C   -0.157128
    30  C   -0.127134
    31  H    0.118785
    32  C   -0.126787
    33  H    0.118613
    34  C   -0.145628
    35  H    0.125703
    36  H    0.125730
    37  H    0.127329
 Sum of Mulliken charges =   0.00000

 Dipole moment (field-independent basis, Debye):
    X=              4.5415    Y=              0.7541    Z=              2.1835  Tot=              5.0953
 Quadrupole moment (field-independent basis, Debye-Ang):
   XX=           -179.1715   YY=           -100.3815   ZZ=            -91.2888
   XY=             12.5494   XZ=            -11.9774   YZ=             14.1989

  Exact polarizability: 304.606 -19.067 232.069 -46.757  57.445 248.198
 Approx polarizability: 339.727  -0.831 251.466 -44.743  49.109 277.848

                      1                      2                      3
                      A                      A                      A
 Frequencies --     13.1635                24.6486                34.2890
 Red. masses --      4.6898                 3.7747                 5.0442
 Frc consts  --      0.0005                 0.0014                 0.0035
 IR Inten    --      1.0157                 1.0811                 2.5033

                      4                      5                      6
                      A                      A                      A
 Frequencies --     40.6606                66.2870                70.0053
 Red. masses --      3.4784                 3.8452                 5.4219
 Frc consts  --      0.0034                 0.0100                 0.0157
 IR Inten    --      2.7602                 1.7892                 3.6952

                      7                      8                      9
                      A                      A                      A
 Frequencies --    106.9018               136.2993               143.2293
 Red. masses --      1.9651                 4.4136                 4.2578
 Frc consts  --      0.0132                 0.0483                 0.0515
 IR Inten    --      0.2081                 2.3484                 0.5652

                     10                     11                     12
                      A                      A                      A
 Frequencies --    168.1211               216.5037               258.2659
 Red. masses --      2.7772                 3.7128                 3.3373
 Frc consts  --      0.0462                 0.1025                 0.1312
 IR Inten    --      1.0820                 0.9183                 1.8751

                     13                     14                     15
                      A                      A                      A
 Frequencies --    292.4271               345.8925               350.1812
 Red. masses --      2.7543                 2.3875                 2.3212
 Frc consts  --      0.1388                 0.1683                 0.1677
 IR Inten    --      1.3447                 9.6431                 0.3366

                     16                     17                     18
                      A                      A                      A
 Frequencies --    379.6094               417.6217               421.9612
 Red. masses --      3.2184                 2.8854                 6.6231
 Frc consts  --      0.2733                 0.2965                 0.6948
 IR Inten    --      3.1078                 0.0014                13.5212

                     19                     20                     21
                      A                      A                      A
 Frequencies --    436.9314               501.7508               525.4413
 Red. masses --      3.3895                 3.7004                 3.5232
 Frc consts  --      0.3812                 0.5489                 0.5731
 IR Inten    --      7.8772                 2.6828                12.4046

                     22                     23                     24
                      A                      A                      A
 Frequencies --    558.0488               583.3617               593.9002
 Red. masses --      2.1036                 2.2245                 3.3822
 Frc consts  --      0.3860                 0.4460                 0.7029
 IR Inten    --     36.8957                53.3192                16.5328

                     25                     26                     27
                      A                      A                      A
 Frequencies --    609.3641               638.4079               650.3509
 Red. masses --      3.6851                 6.3328                 2.6150
 Frc consts  --      0.8062                 1.5207                 0.6516
 IR Inten    --     30.0622                 0.1935                10.1471

                     28                     29                     30
                      A                      A                      A
 Frequencies --    677.7689               720.1043               751.0887
 Red. masses --      3.1207                 1.6134                 1.1387
 Frc consts  --      0.8446                 0.4929                 0.3785
 IR Inten    --     24.0053                68.2087                 5.1132

                     31                     32                     33
                      A                      A                      A
 Frequencies --    760.4529               775.2002               824.6731
 Red. masses --      3.8307                 2.2624                 2.5979
 Frc consts  --      1.3052                 0.8010                 1.0410
 IR Inten    --     12.7825                47.1990                 5.7050

                     34                     35                     36
                      A                      A                      A
 Frequencies --    838.0623               862.2105               866.6311
 Red. masses --      1.9543                 1.3495                 1.3898
 Frc consts  --      0.8087                 0.5911                 0.6150
 IR Inten    --     14.4442                 4.2952                 5.2383

                     37                     38                     39
                      A                      A                      A
 Frequencies --    884.3435               896.9216               933.5230
 Red. masses --      1.9476                 1.7063                 1.5508
 Frc consts  --      0.8974                 0.8088                 0.7963
 IR Inten    --      3.1045                16.8934                 3.4020

                     40                     41                     42
                      A                      A                      A
 Frequencies --    936.6666               989.5096               993.4495
 Red. masses --      2.0027                 2.5837                 1.3762
 Frc consts  --      1.0352                 1.4905                 0.8002
 IR Inten    --     11.1957                 8.9380                 0.2244

                     43                     44                     45
                      A                      A                      A
 Frequencies --    996.8517              1012.9433              1024.1570
 Red. masses --      2.6036                 1.2981                 6.1562
 Frc consts  --      1.5244                 0.7847                 3.8045
 IR Inten    --     35.9903                 0.3273                 0.1669

                     46                     47                     48
                      A                      A                      A
 Frequencies --   1037.5163              1045.9724              1053.7702
 Red. masses --      2.7028                 4.3258                 2.1908
 Frc consts  --      1.7141                 2.7884                 1.4333
 IR Inten    --      3.2780                 8.9787                 8.2168

                     49                     50                     51
                      A                      A                      A
 Frequencies --   1067.1516              1090.9951              1110.5873
 Red. masses --      1.8745                 1.8980                 1.7764
 Frc consts  --      1.2577                 1.3311                 1.2909
 IR Inten    --      2.6239                 4.2667                49.9077

                     52                     53                     54
                      A                      A                      A
 Frequencies --   1114.7263              1151.8529              1160.5423
 Red. masses --      1.6349                 2.4453                 1.3677
 Frc consts  --      1.1970                 1.9115                 1.0854
 IR Inten    --     12.9531                11.5602                 2.9083

                     55                     56                     57
                      A                      A                      A
 Frequencies --   1179.4780              1201.4819              1202.6228
 Red. masses --      1.1059                 1.3526                 1.1447
 Frc consts  --      0.9065                 1.1504                 0.9754
 IR Inten    --      0.0846                12.5151                 0.4386

                     58                     59                     60
                      A                      A                      A
 Frequencies --   1218.4287              1231.1711              1232.1124
 Red. masses --      1.4570                 1.6563                 2.3423
 Frc consts  --      1.2745                 1.4792                 2.0950
 IR Inten    --      3.4445                95.6450                15.8597

                     61                     62                     63
                      A                      A                      A
 Frequencies --   1268.8818              1284.5560              1298.2876
 Red. masses --      1.3277                 1.4489                 1.1687
 Frc consts  --      1.2595                 1.4086                 1.1606
 IR Inten    --      2.2957                13.2238                48.6726

                     64                     65                     66
                      A                      A                      A
 Frequencies --   1325.1340              1337.2976              1341.6575
 Red. masses --      1.1940                 1.8140                 3.1273
 Frc consts  --      1.2353                 1.9114                 3.3167
 IR Inten    --      9.7568               197.9724                 1.1495

                     67                     68                     69
                      A                      A                      A
 Frequencies --   1347.0715              1362.4124              1370.2165
 Red. masses --      1.4331                 1.5313                 1.2662
 Frc consts  --      1.5322                 1.6747                 1.4007
 IR Inten    --      1.4778                93.0911                 0.7682

                     70                     71                     72
                      A                      A                      A
 Frequencies --   1377.3706              1380.3089              1403.0295
 Red. masses --      1.4263                 1.4834                 1.5238
 Frc consts  --      1.5942                 1.6652                 1.7673
 IR Inten    --     13.0859                 2.7910                31.6060

                     73                     74                     75
                      A                      A                      A
 Frequencies --   1460.0893              1473.6929              1476.5811
 Red. masses --      2.7852                 1.1022                 1.4150
 Frc consts  --      3.4983                 1.4103                 1.8177
 IR Inten    --     55.3736                 3.3160                28.8775

                     76                     77                     78
                      A                      A                      A
 Frequencies --   1482.8122              1487.2002              1489.5248
 Red. masses --      1.1068                 1.1033                 2.1478
 Frc consts  --      1.4338                 1.4378                 2.8076
 IR Inten    --     25.6768                 2.6131                 7.5957

                     79                     80                     81
                      A                      A                      A
 Frequencies --   1492.9551              1505.8184              1521.7826
 Red. masses --      1.3816                 1.1038                 1.1782
 Frc consts  --      1.8144                 1.4747                 1.6076
 IR Inten    --     89.0636                10.3036                55.1783

                     82                     83                     84
                      A                      A                      A
 Frequencies --   1533.1837              1624.6941              1645.6802
 Red. masses --      2.2157                 5.4502                 5.5986
 Frc consts  --      3.0687                 8.4763                 8.9334
 IR Inten    --     22.6027                 1.4941                15.1011

                     85                     86                     87
                      A                      A                      A
 Frequencies --   1679.1660              2042.4370              3003.5774
 Red. masses --      6.5127                11.1196                 1.0712
 Frc consts  --     10.8194                27.3297                 5.6938
 IR Inten    --    554.2679               161.5808                80.5559

                     88                     89                     90
                      A                      A                      A
 Frequencies --   3009.7691              3014.0575              3020.2974
 Red. masses --      1.0704                 1.0624                 1.0597
 Frc consts  --      5.7130                 5.6864                 5.6957
 IR Inten    --     26.1325                21.8122                 5.4668

                     91                     92                     93
                      A                      A                      A
 Frequencies --   3029.3111              3038.1591              3045.9328
 Red. masses --      1.0604                 1.0627                 1.0985
 Frc consts  --      5.7334                 5.7791                 6.0046
 IR Inten    --    107.8718                44.1190                 6.8946

                     94                     95                     96
                      A                      A                      A
 Frequencies --   3064.6933              3077.7635              3077.9222
 Red. masses --      1.1009                 1.1030                 1.0926
 Frc consts  --      6.0924                 6.1557                 6.0984
 IR Inten    --     12.6112                85.0129                68.2506

                     97                     98                     99
                      A                      A                      A
 Frequencies --   3088.1369              3092.2045              3109.5842
 Red. masses --      1.1011                 1.0934                 1.0873
 Frc consts  --      6.1868                 6.1598                 6.1943
 IR Inten    --     54.5407                28.8299                17.2130

                    100                    101                    102
                      A                      A                      A
 Frequencies --   3157.4701              3158.7759              3170.9425
 Red. masses --      1.0864                 1.0875                 1.0896
 Frc consts  --      6.3815                 6.3931                 6.4549
 IR Inten    --     14.1739                 9.0976                 9.8389

                    103                    104                    105
                      A                      A                      A
 Frequencies --   3178.6585              3191.0536              3599.3516
 Red. masses --      1.0936                 1.0976                 1.0764
 Frc consts  --      6.5100                 6.5852                 8.2162
 IR Inten    --     58.7959                26.4002                62.7643

 - Thermochemistry -
 -------------------
 Temperature   298.150 Kelvin.  Pressure   1.00000 Atm.
 Atom     1 has atomic number  6 and mass  12.00000

 Molecular mass:   241.14666 amu.
 Principal axes and moments of inertia in atomic units:
                           1         2         3
     Eigenvalues --  1582.33421********************
           X           -0.54622   0.82512  -0.14426
           Y            0.67585   0.33239  -0.65783
           Z            0.49484   0.45682   0.73922
 This molecule is an asymmetric top.
 Rotational symmetry number  1.
 Warning -- assumption of classical behavior for rotation
           may cause significant error
 Rotational temperatures (Kelvin)      0.05474     0.00559     0.00526
 Rotational constants (GHZ):           1.14056     0.11646     0.10956
 Zero-point vibrational energy     828809.3 (Joules/Mol)
                                  198.09018 (Kcal/Mol)
 Warning -- explicit consideration of  25 degrees of freedom as
           vibrations may cause significant error
 Vibrational temperatures:     18.94    35.46    49.33    58.50    95.37
          (Kelvin)            100.72   153.81   196.10   206.08   241.89
                              311.50   371.59   420.74   497.66   503.83
                              546.17   600.86   607.11   628.65   721.91
                              755.99   802.91   839.33   854.49   876.74
                              918.53   935.71   975.16  1036.07  1080.65
                             1094.12  1115.34  1186.52  1205.78  1240.53
                             1246.89  1272.37  1290.47  1343.13  1347.65
                             1423.68  1429.35  1434.25  1457.40  1473.53
                             1492.75  1504.92  1516.14  1535.39  1569.70
                             1597.89  1603.84  1657.26  1669.76  1697.01
                             1728.66  1730.31  1753.05  1771.38  1772.73
                             1825.64  1848.19  1867.95  1906.57  1924.07
                             1930.35  1938.14  1960.21  1971.44  1981.73
                             1985.96  2018.65  2100.74  2120.32  2124.47
                             2133.44  2139.75  2143.09  2148.03  2166.54
                             2189.51  2205.91  2337.57  2367.77  2415.95
                             2938.61  4321.48  4330.39  4336.56  4345.53
                             4358.50  4371.23  4382.42  4409.41  4428.22
                             4428.44  4443.14  4448.99  4474.00  4542.90
                             4544.77  4562.28  4573.38  4591.21  5178.66

 Zero-point correction=                           0.315677 (Hartree/Particle)
 Thermal correction to Energy=                    0.332669
 Thermal correction to Enthalpy=                  0.333613
 Thermal correction to Gibbs Free Energy=         0.266954
 Sum of electronic and zero-point Energies=           -751.129043
 Sum of electronic and thermal Energies=              -751.112051
 Sum of electronic and thermal Enthalpies=            -751.111107
 Sum of electronic and thermal Free Energies=         -751.177766

                     E (Thermal)             CV                S
                      KCal/Mol        Cal/Mol-Kelvin    Cal/Mol-Kelvin
 Total                  208.753             64.396            140.296
 Electronic               0.000              0.000              0.000
 Translational            0.889              2.981             42.342
 Rotational               0.889              2.981             34.356
 Vibrational            206.975             58.434             63.598
 Vibration     1          0.593              1.987              7.465
 Vibration     2          0.593              1.985              6.219
 Vibration     3          0.594              1.983              5.564
 Vibration     4          0.594              1.981              5.227
 Vibration     5          0.598              1.970              4.261
 Vibration     6          0.598              1.968              4.153
 Vibration     7          0.606              1.944              3.324
 Vibration     8          0.614              1.917              2.855
 Vibration     9          0.616              1.910              2.760
 Vibration    10          0.625              1.882              2.456
 Vibration    11          0.645              1.816              1.988
 Vibration    12          0.667              1.749              1.673
 Vibration    13          0.688              1.688              1.460
 Vibration    14          0.724              1.584              1.185
 Vibration    15          0.727              1.575              1.165
 Vibration    16          0.750              1.514              1.041
 Vibration    17          0.781              1.432              0.900
 Vibration    18          0.784              1.422              0.885
 Vibration    19          0.797              1.390              0.836
 Vibration    20          0.857              1.246              0.654
 Vibration    21          0.880              1.194              0.597
 Vibration    22          0.914              1.122              0.528
 Vibration    23          0.940              1.067              0.479
 Vibration    24          0.952              1.045              0.460
 Vibration    25          0.968              1.012              0.434

 Optimization completed.
    -- Stationary point found.
 Normal termination of Gaussian 16 at Wed Jul 10 23:46:55 2024.
