 Gaussian 16, Revision A.03,
 Gaussian 16:  AM64L-G16RevA.03 25-Dec-2016

 ----------------------------------------------------------------------
 #p opt freq b3lyp/gen pseudo=read EmpiricalDispersion=GD3BJ pop=(orbit
 als=20) optcyc=300 nosymm scrf=(pcm,solvent=acetonitrile)
 ----------------------------------------------------------------------

 -------------------
 Title Card Required
 -------------------
 Symbolic Z-matrix:
 Charge =  0 Multiplicity = 1

 SCF Done:  E(RB3LYP) =  -973.720428731     A.U. after   14 cycles
 SCF Done:  E(RB3LYP) =  -973.838235268     A.U. after   12 cycles
 SCF Done:  E(RB3LYP) =  -973.917019324     A.U. after   12 cycles
 SCF Done:  E(RB3LYP) =  -973.926884165     A.U. after   12 cycles
 SCF Done:  E(RB3LYP) =  -973.928186387     A.U. after   11 cycles
 SCF Done:  E(RB3LYP) =  -973.928243632     A.U. after    8 cycles
 SCF Done:  E(RB3LYP) =  -973.928250714     A.U. after    8 cycles
 Optimization completed.
    -- Stationary point found.
 Normal termination of Gaussian 16 at Tue Jul  9 18:19:19 2024.

 ------------------------------------------------------------------
 #P Geom=AllCheck Guess=TCheck SCRF=Check GenChk RB3LYP/ChkBas Freq
 ------------------------------------------------------------------

 Structure from the checkpoint file:  "thioxanthone.chk"
 -------------------
 Title Card Required
 -------------------
 Charge =  0 Multiplicity = 1

                          Input orientation:
 ---------------------------------------------------------------------
 Center     Atomic      Atomic             Coordinates (Angstroms)
 Number     Number       Type             X           Y           Z
 ---------------------------------------------------------------------
      1          6           0       -8.555830   -1.398954   -0.014326
      2          6           0       -7.178238   -1.472977   -0.009953
      3          6           0       -6.409146   -0.301273   -0.010955
      4          6           0       -7.034264    0.953687   -0.016580
      5          6           0       -8.438589    0.996706   -0.020963
      6          6           0       -9.194300   -0.155000   -0.019859
      7          6           0       -4.830555    2.249354   -0.012141
      8          6           0       -4.037975    1.092815   -0.006158
      9          6           0       -2.640179    1.194902   -0.000825
     10          1           0       -2.039725    0.295610    0.003708
     11          6           0       -2.034780    2.434574   -0.001292
     12          6           0       -2.811195    3.597452   -0.007124
     13          6           0       -4.185055    3.497308   -0.012435
     14          1           0       -9.138472   -2.309524   -0.013439
     15          1           0       -6.684678   -2.435064   -0.005630
     16          1           0       -8.906744    1.969312   -0.025252
     17          1           0      -10.273349   -0.098414   -0.023233
     18          1           0       -0.955787    2.500712    0.002893
     19          1           0       -2.335931    4.567858   -0.007449
     20          1           0       -4.806978    4.379518   -0.016977
     21          6           0       -6.308605    2.241422   -0.018275
     22          8           0       -6.931832    3.301246   -0.024543
     23         16           0       -4.675867   -0.535786   -0.004982
 ---------------------------------------------------------------------

 SCF Done:  E(RB3LYP) =  -973.928250714     A.U. after    1 cycles

 Alpha  occ. eigenvalues --  -88.92742 -19.11366 -10.27052 -10.23741 -10.23741
 Alpha  occ. eigenvalues --  -10.20398 -10.20397 -10.19681 -10.19679 -10.19610
 Alpha  occ. eigenvalues --  -10.19609 -10.19217 -10.19217 -10.18850 -10.18849
 Alpha  occ. eigenvalues --   -7.97906  -5.94322  -5.93931  -5.93533  -1.04312
 Alpha  occ. eigenvalues --   -0.90164  -0.87957  -0.82542  -0.78722  -0.77401
 Alpha  occ. eigenvalues --   -0.76742  -0.72251  -0.66561  -0.63871  -0.61528
 Alpha  occ. eigenvalues --   -0.60582  -0.56084  -0.55109  -0.50489  -0.48379
 Alpha  occ. eigenvalues --   -0.48299  -0.47618  -0.44910  -0.44539  -0.44058
 Alpha  occ. eigenvalues --   -0.43625  -0.43198  -0.40140  -0.39340  -0.38426
 Alpha  occ. eigenvalues --   -0.38157  -0.37010  -0.35896  -0.34378  -0.33338
 Alpha  occ. eigenvalues --   -0.28261  -0.27519  -0.27488  -0.26858  -0.22800
 Alpha virt. eigenvalues --   -0.08345  -0.04228  -0.02378  -0.02273   0.01187
 Alpha virt. eigenvalues --    0.04577   0.04608   0.06044   0.07196   0.08068
 Alpha virt. eigenvalues --    0.08092   0.09961   0.11967   0.12036   0.12613

 Mulliken charges:
               1
     1  C   -0.095778
     2  C   -0.138849
     3  C    0.022807
     4  C   -0.008942
     5  C   -0.101469
     6  C   -0.143142
     7  C   -0.009180
     8  C    0.022761
     9  C   -0.138753
    10  H    0.121703
    11  C   -0.095763
    12  C   -0.143099
    13  C   -0.101451
    14  H    0.138435
    15  H    0.121733
    16  H    0.126810
    17  H    0.135312
    18  H    0.138392
    19  H    0.135283
    20  H    0.126965
    21  C    0.214537
    22  O   -0.384106
    23  S    0.055795
 Sum of Mulliken charges =  -0.00000

 Dipole moment (field-independent basis, Debye):
    X=              2.0335    Y=             -3.4575    Z=              0.0222  Tot=              4.0112
 Quadrupole moment (field-independent basis, Debye-Ang):
   XX=            -97.3647   YY=            -96.0395   ZZ=            -97.3726
   XY=             34.3134   XZ=             -0.1080   YZ=              0.0975

  Exact polarizability: 337.506  40.654 292.315   0.750  -0.379  97.250
 Approx polarizability: 386.148  16.473 367.809   0.883  -0.592 127.649

                      1                      2                      3
                      A                      A                      A
 Frequencies --     34.8583               104.2704               131.9482
 Red. masses --      7.7426                 3.8644                 5.5634
 Frc consts  --      0.0055                 0.0248                 0.0571
 IR Inten    --      5.2222                 0.0001                 0.8191

                      4                      5                      6
                      A                      A                      A
 Frequencies --    203.3546               228.1079               229.8866
 Red. masses --      6.6205                 5.0860                 5.0439
 Frc consts  --      0.1613                 0.1559                 0.1571
 IR Inten    --      0.3026                 4.6214                 0.0002

                      7                      8                      9
                      A                      A                      A
 Frequencies --    332.3793               339.2590               414.5404
 Red. masses --      6.3618                 7.8604                 3.5378
 Frc consts  --      0.4141                 0.5330                 0.3582
 IR Inten    --     20.1054                14.3786                 0.7000

                     10                     11                     12
                      A                      A                      A
 Frequencies --    418.4762               454.1689               455.2834
 Red. masses --      9.7454                 3.1156                13.4740
 Frc consts  --      1.0055                 0.3786                 1.6455
 IR Inten    --      0.0116                 0.0014                 0.0108

                     13                     14                     15
                      A                      A                      A
 Frequencies --    486.7252               501.3608               509.5575
 Red. masses --     11.8886                 3.9435                 3.8310
 Frc consts  --      1.6594                 0.5840                 0.5861
 IR Inten    --      7.9160                11.6898                 0.0014

                     16                     17                     18
                      A                      A                      A
 Frequencies --    596.9204               645.1436               684.7276
 Red. masses --      7.1227                 6.9313                 6.3703
 Frc consts  --      1.4953                 1.6997                 1.7597
 IR Inten    --      0.7899                26.0994                 0.5581

                     19                     20                     21
                      A                      A                      A
 Frequencies --    690.2460               743.1234               749.0771
 Red. masses --      3.7511                 3.7559                 7.2272
 Frc consts  --      1.0530                 1.2220                 2.3893
 IR Inten    --     35.8417                 0.0954                 2.6872

                     22                     23                     24
                      A                      A                      A
 Frequencies --    757.7682               779.5081               790.0888
 Red. masses --      1.5430                 1.2619                 6.6509
 Frc consts  --      0.5220                 0.4518                 2.4462
 IR Inten    --    145.1154                 0.0199                 3.1728

                     25                     26                     27
                      A                      A                      A
 Frequencies --    831.7677               896.1528               900.1966
 Red. masses --      2.5291                 1.4012                 1.5859
 Frc consts  --      1.0309                 0.6630                 0.7572
 IR Inten    --     11.6270                 0.0015                 0.0355

                     28                     29                     30
                      A                      A                      A
 Frequencies --    948.1703               998.8864              1000.6545
 Red. masses --      6.9266                 1.3606                 1.3847
 Frc consts  --      3.6689                 0.7999                 0.8169
 IR Inten    --     53.2869                 0.0865                 2.3500

                     31                     32                     33
                      A                      A                      A
 Frequencies --   1023.3149              1024.1885              1057.2228
 Red. masses --      1.3341                 1.3360                 2.8347
 Frc consts  --      0.8231                 0.8257                 1.8668
 IR Inten    --      0.0068                 0.0519                17.6081

                     34                     35                     36
                      A                      A                      A
 Frequencies --   1061.0603              1096.1638              1104.1511
 Red. masses --      2.6611                 3.2106                 4.1006
 Frc consts  --      1.7652                 2.2729                 2.9455
 IR Inten    --     30.4060                28.3948                49.1438

                     37                     38                     39
                      A                      A                      A
 Frequencies --   1135.2057              1142.1348              1187.5492
 Red. masses --      1.8793                 1.9711                 1.2740
 Frc consts  --      1.4269                 1.5149                 1.0585
 IR Inten    --      3.7594                39.3430                24.5868

                     40                     41                     42
                      A                      A                      A
 Frequencies --   1188.4467              1194.2653              1250.3061
 Red. masses --      1.1300                 1.8164                 1.6349
 Frc consts  --      0.9404                 1.5263                 1.5058
 IR Inten    --      4.7903                24.4459                 0.2290

                     43                     44                     45
                      A                      A                      A
 Frequencies --   1289.6005              1331.4048              1346.4726
 Red. masses --      1.6502                 3.1545                 7.8296
 Frc consts  --      1.6170                 3.2945                 8.3634
 IR Inten    --      0.7672               229.2412               120.7813

                     46                     47                     48
                      A                      A                      A
 Frequencies --   1349.2767              1470.6616              1473.2812
 Red. masses --      8.7537                 2.0871                 2.2022
 Frc consts  --      9.3895                 2.6596                 2.8163
 IR Inten    --     37.8269                 2.1167               142.8009

                     49                     50                     51
                      A                      A                      A
 Frequencies --   1496.0207              1504.6029              1588.6114
 Red. masses --      2.3166                 2.2727                 5.7607
 Frc consts  --      3.0547                 3.0314                 8.5656
 IR Inten    --     38.1979                42.0926                 4.0702

                     52                     53                     54
                      A                      A                      A
 Frequencies --   1603.6231              1628.6259              1633.5818
 Red. masses --      6.5622                 6.1234                 5.3237
 Frc consts  --      9.9426                 9.5695                 8.3705
 IR Inten    --      0.6752               277.8787               159.4299

                     55                     56                     57
                      A                      A                      A
 Frequencies --   1666.0711              3175.7012              3176.3763
 Red. masses --      9.7314                 1.0875                 1.0873
 Frc consts  --     15.9152                 6.4618                 6.4634
 IR Inten    --    466.2326                 0.9711                 0.9396

                     58                     59                     60
                      A                      A                      A
 Frequencies --   3186.3178              3186.7595              3197.8864
 Red. masses --      1.0901                 1.0901                 1.0943
 Frc consts  --      6.5209                 6.5228                 6.5934
 IR Inten    --     12.1957                10.3336                24.8412

                     61                     62                     63
                      A                      A                      A
 Frequencies --   3198.1731              3210.8457              3211.2348
 Red. masses --      1.0943                 1.0936                 1.0938
 Frc consts  --      6.5945                 6.6427                 6.6456
 IR Inten    --     11.5529                30.7577                 2.1657

 - Thermochemistry -
 -------------------
 Temperature   298.150 Kelvin.  Pressure   1.00000 Atm.
 Atom     1 has atomic number  6 and mass  12.00000

 Molecular mass:   212.02959 amu.
 Principal axes and moments of inertia in atomic units:
                           1         2         3
     Eigenvalues --  1464.750734225.887245690.63638
           X            0.86207  -0.50677  -0.00362
           Y            0.50678   0.86207   0.00276
           Z            0.00173  -0.00422   0.99999
 This molecule is an asymmetric top.
 Rotational symmetry number  1.
 Warning -- assumption of classical behavior for rotation
           may cause significant error
 Rotational temperatures (Kelvin)      0.05913     0.02050     0.01522
 Rotational constants (GHZ):           1.23211     0.42707     0.31714
 Zero-point vibrational energy     450069.5 (Joules/Mol)
                                  107.56919 (Kcal/Mol)
 Warning -- explicit consideration of  16 degrees of freedom as
           vibrations may cause significant error
 Vibrational temperatures:     50.15   150.02   189.84   292.58   328.20
          (Kelvin)            330.76   478.22   488.12   596.43   602.09
                              653.45   655.05   700.29   721.35   733.14
                              858.84   928.22   985.17   993.11  1069.19
                             1077.75  1090.26  1121.54  1136.76  1196.73
                             1289.36  1295.18  1364.21  1437.17  1439.72
                             1472.32  1473.58  1521.11  1526.63  1577.14
                             1588.63  1633.31  1643.28  1708.62  1709.91
                             1718.28  1798.91  1855.45  1915.59  1937.27
                             1941.31  2115.95  2119.72  2152.44  2164.79
                             2285.66  2307.26  2343.23  2350.36  2397.10
                             4569.13  4570.10  4584.40  4585.04  4601.05
                             4601.46  4619.69  4620.25

 Zero-point correction=                           0.171422 (Hartree/Particle)
 Thermal correction to Energy=                    0.182288
 Thermal correction to Enthalpy=                  0.183232
 Thermal correction to Gibbs Free Energy=         0.133943
 Sum of electronic and zero-point Energies=           -973.756828
 Sum of electronic and thermal Energies=              -973.745963
 Sum of electronic and thermal Enthalpies=            -973.745019
 Sum of electronic and thermal Free Energies=         -973.794308

                     E (Thermal)             CV                S
                      KCal/Mol        Cal/Mol-Kelvin    Cal/Mol-Kelvin
 Total                  114.387             44.115            103.738
 Electronic               0.000              0.000              0.000
 Translational            0.889              2.981             41.958
 Rotational               0.889              2.981             31.933
 Vibrational            112.610             38.153             29.847
 Vibration     1          0.594              1.983              5.532
 Vibration     2          0.605              1.946              3.373
 Vibration     3          0.612              1.921              2.917
 Vibration     4          0.639              1.835              2.103
 Vibration     5          0.651              1.798              1.894
 Vibration     6          0.652              1.795              1.880
 Vibration     7          0.714              1.611              1.248
 Vibration     8          0.719              1.597              1.216
 Vibration     9          0.778              1.439              0.911
 Vibration    10          0.781              1.430              0.897
 Vibration    11          0.813              1.352              0.783
 Vibration    12          0.814              1.349              0.780
 Vibration    13          0.843              1.279              0.692
 Vibration    14          0.857              1.247              0.655
 Vibration    15          0.865              1.229              0.635
 Vibration    16          0.955              1.038              0.455

                           ! Non-Optimized Parameters !
 Normal termination of Gaussian 16 at Tue Jul  9 20:01:21 2024.
