 Gaussian 16, Revision A.03,
 Gaussian 16:  AM64L-G16RevA.03 25-Dec-2016

 ----------------------------------------------------------------------
 #p opt freq b3lyp/gen pseudo=read EmpiricalDispersion=GD3BJ pop=(orbit
 als=20) optcyc=300 nosymm scrf=(pcm,solvent=acetonitrile)
 ----------------------------------------------------------------------

 -------------------
 Title Card Required
 -------------------
 Symbolic Z-matrix:
 Charge =  0 Multiplicity = 1

 SCF Done:  E(RB3LYP) =  -751.280826102     A.U. after   13 cycles
 SCF Done:  E(RB3LYP) =  -751.336125054     A.U. after   11 cycles
 SCF Done:  E(RB3LYP) =  -751.400768653     A.U. after   11 cycles
 SCF Done:  E(RB3LYP) =  -751.426222993     A.U. after   10 cycles
 SCF Done:  E(RB3LYP) =  -751.434513887     A.U. after   10 cycles
 SCF Done:  E(RB3LYP) =  -751.436802100     A.U. after   12 cycles
 SCF Done:  E(RB3LYP) =  -751.438927575     A.U. after   11 cycles
 SCF Done:  E(RB3LYP) =  -751.440631955     A.U. after   12 cycles
 SCF Done:  E(RB3LYP) =  -751.441110967     A.U. after   11 cycles
 SCF Done:  E(RB3LYP) =  -751.443167804     A.U. after   12 cycles
 SCF Done:  E(RB3LYP) =  -751.444180192     A.U. after   10 cycles
 SCF Done:  E(RB3LYP) =  -751.444240306     A.U. after   10 cycles
 SCF Done:  E(RB3LYP) =  -751.444617090     A.U. after   10 cycles
 SCF Done:  E(RB3LYP) =  -751.444780999     A.U. after   10 cycles
 SCF Done:  E(RB3LYP) =  -751.444901555     A.U. after    9 cycles
 SCF Done:  E(RB3LYP) =  -751.444902849     A.U. after    9 cycles
 SCF Done:  E(RB3LYP) =  -751.444908510     A.U. after    8 cycles
 SCF Done:  E(RB3LYP) =  -751.444908940     A.U. after    7 cycles
 SCF Done:  E(RB3LYP) =  -751.444909031     A.U. after    6 cycles
 Optimization completed.
    -- Stationary point found.
 Normal termination of Gaussian 16 at Wed Jul 10 19:48:35 2024.

 ------------------------------------------------------------------
 #P Geom=AllCheck Guess=TCheck SCRF=Check GenChk RB3LYP/ChkBas Freq
 ------------------------------------------------------------------

 Structure from the checkpoint file:  "e-ent.chk"
 -------------------
 Title Card Required
 -------------------
 Charge =  0 Multiplicity = 1

                          Input orientation:
 ---------------------------------------------------------------------
 Center     Atomic      Atomic             Coordinates (Angstroms)
 Number     Number       Type             X           Y           Z
 ---------------------------------------------------------------------
      1          6           0       -7.516446    3.164461    2.818023
      2          1           0       -7.117705    3.684628    1.941639
      3          1           0       -7.246845    2.113345    2.724552
      4          6           0       -6.928683    3.764536    4.083432
      5          1           0       -5.842974    3.792864    3.996243
      6          1           0       -7.177455    3.134483    4.939887
      7          6           0       -7.488390    5.167921    4.293174
      8          1           0       -7.086337    5.625839    5.194688
      9          1           0       -7.190273    5.799398    3.450364
     10          6           0       -9.739014    4.147968    3.503222
     11          7           0       -8.974295    3.256292    2.830462
     12          1           0       -9.490021    2.635509    2.226091
     13          8           0      -10.967562    4.134694    3.408904
     14          6           0       -9.001691    5.121138    4.371494
     15          6           0       -9.691287    5.890663    5.174681
     16          6           0      -10.357487    6.641942    5.996719
     17          1           0      -10.690014    7.619461    5.655374
     18          6           0      -12.270694    6.149348    7.559032
     19          1           0      -12.664085    5.407146    6.861135
     20          1           0      -12.728218    7.104761    7.290334
     21          6           0      -10.751152    6.242970    7.396090
     22          1           0      -10.361340    6.984162    8.099891
     23          1           0      -10.291053    5.286754    7.647951
     24          6           0      -12.682730    5.775396    8.988553
     25          1           0      -12.280008    6.517745    9.680917
     26          1           0      -12.229059    4.816717    9.249337
     27          6           0      -14.177228    5.690601    9.147666
     28          6           0      -14.858915    4.505410    8.867963
     29          6           0      -14.919882    6.807267    9.532867
     30          6           0      -16.243493    4.436274    8.969449
     31          1           0      -14.297657    3.628393    8.570617
     32          6           0      -16.304863    6.743931    9.636295
     33          1           0      -14.406389    7.733976    9.756642
     34          6           0      -16.972186    5.556930    9.353972
     35          1           0      -16.753171    3.507219    8.751732
     36          1           0      -16.862247    7.619836    9.940347
     37          1           0      -18.049212    5.504545    9.436233
 ---------------------------------------------------------------------

 SCF Done:  E(RB3LYP) =  -751.444909031     A.U. after    1 cycles

 Alpha  occ. eigenvalues --  -19.08957 -14.34432 -10.27926 -10.21417 -10.19597
 Alpha  occ. eigenvalues --  -10.19310 -10.18864 -10.18530 -10.18437 -10.18174
 Alpha  occ. eigenvalues --  -10.17965 -10.17780 -10.17772 -10.17586 -10.17521
 Alpha  occ. eigenvalues --  -10.17513 -10.17418 -10.17380  -1.03630  -0.93063
 Alpha  occ. eigenvalues --   -0.86366  -0.83354  -0.81169  -0.78652  -0.76467
 Alpha  occ. eigenvalues --   -0.74880  -0.73187  -0.68926  -0.66079  -0.63328
 Alpha  occ. eigenvalues --   -0.60917  -0.60679  -0.58387  -0.57965  -0.51841
 Alpha  occ. eigenvalues --   -0.51296  -0.50814  -0.48889  -0.47726  -0.46986
 Alpha  occ. eigenvalues --   -0.46058  -0.45219  -0.44399  -0.43513  -0.43076
 Alpha  occ. eigenvalues --   -0.42317  -0.42226  -0.42008  -0.41217  -0.39135
 Alpha  occ. eigenvalues --   -0.38008  -0.37271  -0.36638  -0.35482  -0.35217
 Alpha  occ. eigenvalues --   -0.35120  -0.34637  -0.33732  -0.33313  -0.27053
 Alpha  occ. eigenvalues --   -0.26435  -0.25980  -0.25958  -0.25848  -0.24816
 Alpha virt. eigenvalues --   -0.03414  -0.01443  -0.01363   0.01100   0.03446
 Alpha virt. eigenvalues --    0.04000   0.05235   0.05871   0.06092   0.06679
 Alpha virt. eigenvalues --    0.07000   0.08087   0.08604   0.09376   0.09681

 Mulliken charges:
               1
     1  C   -0.063985
     2  H    0.095558
     3  H    0.108717
     4  C   -0.174203
     5  H    0.104679
     6  H    0.097625
     7  C   -0.136535
     8  H    0.102086
     9  H    0.099948
    10  C    0.174246
    11  N   -0.126064
    12  H    0.154193
    13  O   -0.425229
    14  C    0.042390
    15  C   -0.014878
    16  C   -0.263096
    17  H    0.141394
    18  C   -0.140698
    19  H    0.097744
    20  H    0.094688
    21  C   -0.137740
    22  H    0.101573
    23  H    0.092966
    24  C   -0.191941
    25  H    0.093161
    26  H    0.096348
    27  C    0.074548
    28  C   -0.157287
    29  C   -0.156606
    30  C   -0.127308
    31  H    0.119079
    32  C   -0.126788
    33  H    0.118275
    34  C   -0.145594
    35  H    0.125716
    36  H    0.125712
    37  H    0.127307
 Sum of Mulliken charges =  -0.00000

 Dipole moment (field-independent basis, Debye):
    X=              5.6256    Y=             -0.4643    Z=              0.3282  Tot=              5.6542
 Quadrupole moment (field-independent basis, Debye-Ang):
   XX=           -214.4592   YY=           -101.0311   ZZ=           -101.7611
   XY=             25.4329   XZ=             15.6419   YZ=              7.8969

  Exact polarizability: 303.827 -25.192 255.276 -50.382  55.913 224.992
 Approx polarizability: 326.869 -24.701 297.772 -39.554  57.563 244.466

                      1                      2                      3
                      A                      A                      A
 Frequencies --     13.4305                19.2870                30.8272
 Red. masses --      5.0850                 3.7627                 5.1593
 Frc consts  --      0.0005                 0.0008                 0.0029
 IR Inten    --      0.8965                 0.0486                 7.1447

                      4                      5                      6
                      A                      A                      A
 Frequencies --     44.9837                62.6307                83.6890
 Red. masses --      3.8263                 4.3710                 3.7893
 Frc consts  --      0.0046                 0.0101                 0.0156
 IR Inten    --      0.1541                 1.7731                 3.0644

                      7                      8                      9
                      A                      A                      A
 Frequencies --    108.6376               139.7236               144.5947
 Red. masses --      1.9973                 3.8062                 4.1253
 Frc consts  --      0.0139                 0.0438                 0.0508
 IR Inten    --      0.2260                 2.4386                 0.5433

                     10                     11                     12
                      A                      A                      A
 Frequencies --    154.5581               242.3432               258.6375
 Red. masses --      2.9382                 4.5507                 3.4944
 Frc consts  --      0.0414                 0.1575                 0.1377
 IR Inten    --      1.2267                 0.4865                 0.6276

                     13                     14                     15
                      A                      A                      A
 Frequencies --    290.6592               347.5386               350.0568
 Red. masses --      2.2517                 2.6789                 3.4359
 Frc consts  --      0.1121                 0.1906                 0.2481
 IR Inten    --      1.8369                 1.0092                 6.0476

                     16                     17                     18
                      A                      A                      A
 Frequencies --    359.8510               417.2713               425.5878
 Red. masses --      2.4036                 2.8834                 3.8214
 Frc consts  --      0.1834                 0.2958                 0.4078
 IR Inten    --      9.2926                 0.0065                10.4318

                     19                     20                     21
                      A                      A                      A
 Frequencies --    447.3224               484.8522               526.4746
 Red. masses --      4.6600                 3.7109                 3.2325
 Frc consts  --      0.5494                 0.5140                 0.5279
 IR Inten    --     11.9571                10.0656                 6.4519

                     22                     23                     24
                      A                      A                      A
 Frequencies --    552.4629               588.7813               596.1970
 Red. masses --      1.9781                 2.0827                 4.3683
 Frc consts  --      0.3557                 0.4254                 0.9148
 IR Inten    --     32.2540                63.6030                 2.9502

                     25                     26                     27
                      A                      A                      A
 Frequencies --    611.4461               638.5915               657.5314
 Red. masses --      3.4465                 6.3318                 2.9298
 Frc consts  --      0.7592                 1.5213                 0.7463
 IR Inten    --     26.8932                 0.1859                18.7138

                     28                     29                     30
                      A                      A                      A
 Frequencies --    677.6448               719.6629               750.4168
 Red. masses --      3.1322                 1.6146                 1.2483
 Frc consts  --      0.8474                 0.4927                 0.4142
 IR Inten    --     14.2720                66.9450                13.6602

                     31                     32                     33
                      A                      A                      A
 Frequencies --    760.3096               774.7437               824.5119
 Red. masses --      2.7867                 2.2142                 2.7665
 Frc consts  --      0.9491                 0.7830                 1.1081
 IR Inten    --     36.7531                21.0446                 3.9982

                     34                     35                     36
                      A                      A                      A
 Frequencies --    838.9003               861.3641               866.0839
 Red. masses --      1.9465                 1.3542                 1.3938
 Frc consts  --      0.8071                 0.5920                 0.6160
 IR Inten    --     20.1559                 3.8383                 3.5569

                     37                     38                     39
                      A                      A                      A
 Frequencies --    881.9841               897.1958               933.1136
 Red. masses --      1.8551                 1.7601                 1.5463
 Frc consts  --      0.8502                 0.8348                 0.7933
 IR Inten    --      2.0863                17.2964                 5.2731

                     40                     41                     42
                      A                      A                      A
 Frequencies --    936.4863               990.8095               992.9764
 Red. masses --      2.0029                 2.5332                 1.3867
 Frc consts  --      1.0349                 1.4652                 0.8056
 IR Inten    --      5.6179                16.4641                 0.6115

                     43                     44                     45
                      A                      A                      A
 Frequencies --    997.0304              1012.7587              1024.1398
 Red. masses --      2.6108                 1.2973                 6.1541
 Frc consts  --      1.5291                 0.7839                 3.8031
 IR Inten    --     30.7297                 0.3530                 0.1227

                     46                     47                     48
                      A                      A                      A
 Frequencies --   1037.4110              1045.2982              1053.4619
 Red. masses --      2.7150                 4.1407                 2.1865
 Frc consts  --      1.7216                 2.6657                 1.4297
 IR Inten    --      3.5677                10.7028                 8.4359

                     49                     50                     51
                      A                      A                      A
 Frequencies --   1067.5654              1091.0131              1111.2523
 Red. masses --      1.8913                 1.8963                 1.7852
 Frc consts  --      1.2700                 1.3299                 1.2989
 IR Inten    --      2.4138                 3.1403                43.8033

                     52                     53                     54
                      A                      A                      A
 Frequencies --   1114.4143              1153.5346              1159.1773
 Red. masses --      1.6334                 2.9661                 1.2457
 Frc consts  --      1.1952                 2.3254                 0.9862
 IR Inten    --     17.4312                12.7869                 0.8281

                     55                     56                     57
                      A                      A                      A
 Frequencies --   1178.7373              1201.3220              1201.9669
 Red. masses --      1.1050                 1.1423                 1.3515
 Frc consts  --      0.9046                 0.9713                 1.1504
 IR Inten    --      0.0929                 0.5415                13.5555

                     58                     59                     60
                      A                      A                      A
 Frequencies --   1218.2098              1231.0793              1231.8455
 Red. masses --      1.4549                 1.6797                 2.3035
 Frc consts  --      1.2721                 1.4999                 2.0595
 IR Inten    --      2.2404                97.8234                18.0449

                     61                     62                     63
                      A                      A                      A
 Frequencies --   1268.9687              1284.2594              1298.8610
 Red. masses --      1.3320                 1.4415                 1.1673
 Frc consts  --      1.2637                 1.4007                 1.1603
 IR Inten    --      4.1981                11.1261                44.9202

                     64                     65                     66
                      A                      A                      A
 Frequencies --   1325.2111              1337.3241              1341.5940
 Red. masses --      1.1898                 1.8327                 3.1309
 Frc consts  --      1.2312                 1.9312                 3.3202
 IR Inten    --      7.8154               198.6060                 1.8787

                     67                     68                     69
                      A                      A                      A
 Frequencies --   1346.1895              1363.2124              1369.1161
 Red. masses --      1.4338                 1.5386                 1.2679
 Frc consts  --      1.5309                 1.6847                 1.4003
 IR Inten    --      4.1997                96.5174                 0.9033

                     70                     71                     72
                      A                      A                      A
 Frequencies --   1377.4286              1380.4255              1403.6772
 Red. masses --      1.4249                 1.4827                 1.5201
 Frc consts  --      1.5928                 1.6647                 1.7646
 IR Inten    --     13.3273                 3.2653                27.6211

                     73                     74                     75
                      A                      A                      A
 Frequencies --   1459.4758              1473.8904              1476.5310
 Red. masses --      2.7960                 1.1023                 1.4029
 Frc consts  --      3.5090                 1.4109                 1.8020
 IR Inten    --     54.5040                 3.0565                25.8242

                     76                     77                     78
                      A                      A                      A
 Frequencies --   1482.5643              1486.7771              1489.4468
 Red. masses --      1.1059                 1.1076                 2.1346
 Frc consts  --      1.4321                 1.4426                 2.7900
 IR Inten    --     21.3418                 1.3591                 7.9051

                     79                     80                     81
                      A                      A                      A
 Frequencies --   1492.9261              1505.6187              1521.8109
 Red. masses --      1.3943                 1.1030                 1.1772
 Frc consts  --      1.8310                 1.4732                 1.6063
 IR Inten    --     86.5349                11.4508                52.3795

                     82                     83                     84
                      A                      A                      A
 Frequencies --   1532.7475              1624.7443              1645.5661
 Red. masses --      2.2252                 5.4622                 5.6209
 Frc consts  --      3.0800                 8.4954                 8.9679
 IR Inten    --     23.1456                 1.5148                13.3951

                     85                     86                     87
                      A                      A                      A
 Frequencies --   1678.2030              2042.8060              3003.9262
 Red. masses --      6.4843                11.1291                 1.0712
 Frc consts  --     10.7597                27.3630                 5.6950
 IR Inten    --    538.1950               156.2243                85.7397

                     88                     89                     90
                      A                      A                      A
 Frequencies --   3009.1640              3014.4402              3020.6985
 Red. masses --      1.0705                 1.0626                 1.0594
 Frc consts  --      5.7111                 5.6891                 5.6956
 IR Inten    --     27.4454                29.6276                 1.7364

                     91                     92                     93
                      A                      A                      A
 Frequencies --   3029.4396              3037.8918              3047.2315
 Red. masses --      1.0609                 1.0628                 1.0980
 Frc consts  --      5.7368                 5.7787                 6.0071
 IR Inten    --    106.4580                43.8293                 7.0220

                     94                     95                     96
                      A                      A                      A
 Frequencies --   3064.6857              3078.1602              3078.3844
 Red. masses --      1.1007                 1.0925                 1.1033
 Frc consts  --      6.0909                 6.0989                 6.1602
 IR Inten    --     12.4270                35.8420               112.6970

                     97                     98                     99
                      A                      A                      A
 Frequencies --   3088.3535              3091.9111              3108.6964
 Red. masses --      1.1010                 1.0933                 1.0873
 Frc consts  --      6.1870                 6.1581                 6.1907
 IR Inten    --     56.5245                28.9068                17.1149

                    100                    101                    102
                      A                      A                      A
 Frequencies --   3157.3218              3158.5374              3170.8786
 Red. masses --      1.0865                 1.0875                 1.0895
 Frc consts  --      6.3812                 6.3925                 6.4544
 IR Inten    --     14.4002                 9.2860                 9.6503

                    103                    104                    105
                      A                      A                      A
 Frequencies --   3178.6815              3191.0921              3598.6963
 Red. masses --      1.0935                 1.0976                 1.0764
 Frc consts  --      6.5100                 6.5852                 8.2133
 IR Inten    --     57.8519                26.2891                64.5060

 - Thermochemistry -
 -------------------
 Temperature   298.150 Kelvin.  Pressure   1.00000 Atm.
 Atom     1 has atomic number  6 and mass  12.00000

 Molecular mass:   241.14666 amu.
 Principal axes and moments of inertia in atomic units:
                           1         2         3
     Eigenvalues --  1676.02947********************
           X            0.77012   0.53458  -0.34805
           Y           -0.17600   0.70251   0.68957
           Z           -0.61314   0.46980  -0.63510
 This molecule is an asymmetric top.
 Rotational symmetry number  1.
 Warning -- assumption of classical behavior for rotation
           may cause significant error
 Rotational temperatures (Kelvin)      0.05168     0.00601     0.00565
 Rotational constants (GHZ):           1.07680     0.12517     0.11776
 Zero-point vibrational energy     828844.4 (Joules/Mol)
                                  198.09855 (Kcal/Mol)
 Warning -- explicit consideration of  25 degrees of freedom as
           vibrations may cause significant error
 Vibrational temperatures:     19.32    27.75    44.35    64.72    90.11
          (Kelvin)            120.41   156.31   201.03   208.04   222.37
                              348.68   372.12   418.19   500.03   503.65
                              517.75   600.36   612.33   643.60   697.59
                              757.48   794.87   847.12   857.79   879.73
                              918.79   946.04   974.98  1035.43  1079.68
                             1093.92  1114.68  1186.29  1206.99  1239.31
                             1246.10  1268.98  1290.86  1342.54  1347.39
                             1425.55  1428.67  1434.50  1457.13  1473.51
                             1492.60  1503.95  1515.70  1535.99  1569.72
                             1598.84  1603.39  1659.68  1667.80  1695.94
                             1728.43  1729.36  1752.73  1771.25  1772.35
                             1825.76  1847.76  1868.77  1906.68  1924.11
                             1930.25  1936.87  1961.36  1969.85  1981.81
                             1986.12  2019.58  2099.86  2120.60  2124.40
                             2133.08  2139.14  2142.98  2147.99  2166.25
                             2189.55  2205.28  2337.64  2367.60  2414.56
                             2939.14  4321.98  4329.52  4337.11  4346.11
                             4358.69  4370.85  4384.29  4409.40  4428.79
                             4429.11  4443.45  4448.57  4472.72  4542.68
                             4544.43  4562.19  4573.41  4591.27  5177.72

 Zero-point correction=                           0.315690 (Hartree/Particle)
 Thermal correction to Energy=                    0.332662
 Thermal correction to Enthalpy=                  0.333606
 Thermal correction to Gibbs Free Energy=         0.266918
 Sum of electronic and zero-point Energies=           -751.129219
 Sum of electronic and thermal Energies=              -751.112247
 Sum of electronic and thermal Enthalpies=            -751.111303
 Sum of electronic and thermal Free Energies=         -751.177991

                     E (Thermal)             CV                S
                      KCal/Mol        Cal/Mol-Kelvin    Cal/Mol-Kelvin
 Total                  208.749             64.391            140.357
 Electronic               0.000              0.000              0.000
 Translational            0.889              2.981             42.342
 Rotational               0.889              2.981             34.270
 Vibrational            206.971             58.429             63.745
 Vibration     1          0.593              1.987              7.425
 Vibration     2          0.593              1.986              6.706
 Vibration     3          0.594              1.984              5.775
 Vibration     4          0.595              1.979              5.027
 Vibration     5          0.597              1.972              4.373
 Vibration     6          0.601              1.960              3.802
 Vibration     7          0.606              1.942              3.293
 Vibration     8          0.615              1.914              2.808
 Vibration     9          0.616              1.909              2.742
 Vibration    10          0.620              1.898              2.615
 Vibration    11          0.659              1.775              1.786
 Vibration    12          0.667              1.748              1.671
 Vibration    13          0.687              1.691              1.470
 Vibration    14          0.725              1.580              1.177
 Vibration    15          0.727              1.575              1.166
 Vibration    16          0.734              1.555              1.123
 Vibration    17          0.780              1.433              0.901
 Vibration    18          0.787              1.415              0.873
 Vibration    19          0.806              1.367              0.804
 Vibration    20          0.841              1.284              0.697
 Vibration    21          0.881              1.191              0.595
 Vibration    22          0.908              1.134              0.539
 Vibration    23          0.946              1.056              0.469
 Vibration    24          0.954              1.040              0.456
 Vibration    25          0.971              1.008              0.430

                           ! Non-Optimized Parameters !
 Normal termination of Gaussian 16 at Thu Jul 11 00:09:00 2024.
